
     Program PWSCF v.6.5 starts on 12May2020 at 23:34:44 

     This program is part of the open-source Quantum ESPRESSO suite
     for quantum simulation of materials; please cite
         "P. Giannozzi et al., J. Phys.:Condens. Matter 21 395502 (2009);
         "P. Giannozzi et al., J. Phys.:Condens. Matter 29 465901 (2017);
          URL http://www.quantum-espresso.org", 
     in publications or presentations arising from this work. More details at
     http://www.quantum-espresso.org/quote

     Serial version
     Reading input from Si.scf.48.in
     Message from routine read_cards :
     DEPRECATED: no units specified in ATOMIC_POSITIONS card
     Message from routine read_cards :
     ATOMIC_POSITIONS: units set to alat

     Current dimensions of program PWSCF are:
     Max number of different atomic species (ntypx) = 10
     Max number of k-points (npk) =  40000
     Max angular momentum in pseudopotentials (lmaxx) =  3

     G-vector sticks info
     --------------------
     sticks:   dense  smooth     PW     G-vecs:    dense   smooth      PW
     Sum        1381     685    199                33775    11935    1917



     bravais-lattice index     =            2
     lattice parameter (alat)  =      10.2000  a.u.
     unit-cell volume          =     265.3020 (a.u.)^3
     number of atoms/cell      =            2
     number of atomic types    =            1
     number of electrons       =         8.00
     number of Kohn-Sham states=           10
     kinetic-energy cutoff     =      48.0000  Ry
     charge density cutoff     =     384.0000  Ry
     convergence threshold     =      1.0E-08
     mixing beta               =       0.7000
     number of iterations used =            8  plain     mixing
     Exchange-correlation= PBE
                           (   1   4   3   4   0   0   0)

     celldm(1)=  10.200000  celldm(2)=   0.000000  celldm(3)=   0.000000
     celldm(4)=   0.000000  celldm(5)=   0.000000  celldm(6)=   0.000000

     crystal axes: (cart. coord. in units of alat)
               a(1) = (  -0.500000   0.000000   0.500000 )  
               a(2) = (   0.000000   0.500000   0.500000 )  
               a(3) = (  -0.500000   0.500000   0.000000 )  

     reciprocal axes: (cart. coord. in units 2 pi/alat)
               b(1) = ( -1.000000 -1.000000  1.000000 )  
               b(2) = (  1.000000  1.000000  1.000000 )  
               b(3) = ( -1.000000  1.000000 -1.000000 )  


     PseudoPot. # 1 for Si read from file:
     ./Si.pbe-n-rrkjus_psl.1.0.0.UPF
     MD5 check sum: fa25574f73a70a4139f2adfbefec430c
     Pseudo is Ultrasoft + core correction, Zval =  4.0
     Generated using "atomic" code by A. Dal Corso v.6.3
     Using radial grid of 1141 points,  6 beta functions with: 
                l(1) =   0
                l(2) =   0
                l(3) =   1
                l(4) =   1
                l(5) =   2
                l(6) =   2
     Q(r) pseudized with 0 coefficients 


     atomic species   valence    mass     pseudopotential
        Si             4.00    28.08600     Si( 1.00)

     48 Sym. Ops., with inversion, found (24 have fractional translation)



   Cartesian axes

     site n.     atom                  positions (alat units)
         1           Si  tau(   1) = (   0.0000000   0.0000000   0.0000000  )
         2           Si  tau(   2) = (   0.2500000   0.2500000   0.2500000  )

     number of k points=    10
                       cart. coord. in units 2pi/alat
        k(    1) = (   0.1250000   0.1250000   0.1250000), wk =   0.0625000
        k(    2) = (   0.1250000   0.1250000   0.3750000), wk =   0.1875000
        k(    3) = (   0.1250000   0.1250000   0.6250000), wk =   0.1875000
        k(    4) = (   0.1250000   0.1250000   0.8750000), wk =   0.1875000
        k(    5) = (   0.1250000   0.3750000   0.3750000), wk =   0.1875000
        k(    6) = (   0.1250000   0.3750000   0.6250000), wk =   0.3750000
        k(    7) = (   0.1250000   0.3750000   0.8750000), wk =   0.3750000
        k(    8) = (   0.1250000   0.6250000   0.6250000), wk =   0.1875000
        k(    9) = (   0.3750000   0.3750000   0.3750000), wk =   0.0625000
        k(   10) = (   0.3750000   0.3750000   0.6250000), wk =   0.1875000

     Dense  grid:    33775 G-vectors     FFT dimensions: (  48,  48,  48)

     Smooth grid:    11935 G-vectors     FFT dimensions: (  32,  32,  32)

     Estimated max dynamical RAM per process >     130.93 MB

     Initial potential from superposition of free atoms

     starting charge    7.99888, renormalised to    8.00000
     Starting wfcs are    8 randomized atomic wfcs +    2 random wfcs

     total cpu time spent up to now is        2.3 secs

     Self-consistent Calculation

     iteration #  1     ecut=    48.00 Ry     beta= 0.70
     Davidson diagonalization with overlap
     ethr =  1.00E-02,  avg # of iterations =  6.0

     Threshold (ethr) on eigenvalues was too large:
     Diagonalizing with lowered threshold

     Davidson diagonalization with overlap
     ethr =  7.37E-04,  avg # of iterations =  1.4

     total cpu time spent up to now is        4.8 secs

     total energy              =     -22.83596653 Ry
     Harris-Foulkes estimate   =     -22.85064401 Ry
     estimated scf accuracy    <       0.05837937 Ry

     iteration #  2     ecut=    48.00 Ry     beta= 0.70
     Davidson diagonalization with overlap
     ethr =  7.30E-04,  avg # of iterations =  1.0

     total cpu time spent up to now is        6.5 secs

     total energy              =     -22.83857518 Ry
     Harris-Foulkes estimate   =     -22.83865280 Ry
     estimated scf accuracy    <       0.00202946 Ry

     iteration #  3     ecut=    48.00 Ry     beta= 0.70
     Davidson diagonalization with overlap
     ethr =  2.54E-05,  avg # of iterations =  3.8

     total cpu time spent up to now is        7.9 secs

     total energy              =     -22.83864776 Ry
     Harris-Foulkes estimate   =     -22.83864275 Ry
     estimated scf accuracy    <       0.00005130 Ry

     iteration #  4     ecut=    48.00 Ry     beta= 0.70
     Davidson diagonalization with overlap
     ethr =  6.41E-07,  avg # of iterations =  2.0

     total cpu time spent up to now is        9.0 secs

     total energy              =     -22.83865261 Ry
     Harris-Foulkes estimate   =     -22.83865245 Ry
     estimated scf accuracy    <       0.00000022 Ry

     iteration #  5     ecut=    48.00 Ry     beta= 0.70
     Davidson diagonalization with overlap
     ethr =  2.79E-09,  avg # of iterations =  3.0

     total cpu time spent up to now is       10.1 secs

     total energy              =     -22.83865284 Ry
     Harris-Foulkes estimate   =     -22.83865283 Ry
     estimated scf accuracy    <       0.00000001 Ry

     iteration #  6     ecut=    48.00 Ry     beta= 0.70
     Davidson diagonalization with overlap
     ethr =  1.82E-10,  avg # of iterations =  1.8

     total cpu time spent up to now is       11.2 secs

     End of self-consistent calculation

          k = 0.1250 0.1250 0.1250 (  1462 PWs)   bands (ev):

    -5.4858   4.7899   6.1016   6.1016   8.9481   9.3987   9.3987  11.2720
    13.6477  13.6477

          k = 0.1250 0.1250 0.3750 (  1485 PWs)   bands (ev):

    -4.9398   3.1553   5.0519   5.1396   8.5486  10.1774  10.9017  11.1600
    14.0393  14.6150

          k = 0.1250 0.1250 0.6250 (  1494 PWs)   bands (ev):

    -3.8725   1.4330   3.6775   4.1480   7.7316   9.2856  12.4751  12.7215
    16.4355  16.7712

          k = 0.1250 0.1250 0.8750 (  1495 PWs)   bands (ev):

    -2.3478  -0.4791   2.8935   3.6662   7.2614   8.3508  14.7438  14.8611
    17.2881  17.2886

          k = 0.1250 0.3750 0.3750 (  1481 PWs)   bands (ev):

    -4.4224   1.7315   4.0478   5.6117   9.1715  10.0886  10.2743  12.7750
    12.8772  16.3298

          k = 0.1250 0.3750 0.6250 (  1491 PWs)   bands (ev):

    -3.4376   0.5073   3.0198   4.4311   9.2857   9.9744  11.4550  12.3872
    15.5025  16.2261

          k = 0.1250 0.3750 0.8750 (  1500 PWs)   bands (ev):

    -2.1640  -0.5853   2.2561   3.3775   8.7812  10.6908  11.7322  13.9137
    14.8890  17.5916

          k = 0.1250 0.6250 0.6250 (  1493 PWs)   bands (ev):

    -2.7173  -0.3048   2.3324   4.4771   8.2325  11.9114  11.9189  13.4287
    14.4180  14.5271

          k = 0.3750 0.3750 0.3750 (  1483 PWs)   bands (ev):

    -3.9700   0.3816   5.2932   5.2932   8.1257   9.8471   9.8471  14.3239
    15.0259  15.0259

          k = 0.3750 0.3750 0.6250 (  1491 PWs)   bands (ev):

    -3.2293  -0.4316   4.0875   4.8079   8.6167   9.9392  10.5052  13.8284
    15.4473  16.9456

     highest occupied, lowest unoccupied level (ev):     6.1016    7.2614

!    total energy              =     -22.83865284 Ry
     Harris-Foulkes estimate   =     -22.83865284 Ry
     estimated scf accuracy    <          1.0E-09 Ry

     The total energy is the sum of the following terms:

     one-electron contribution =       5.30790719 Ry
     hartree contribution      =       1.08488744 Ry
     xc contribution           =     -12.33168890 Ry
     ewald contribution        =     -16.89975857 Ry

     convergence has been achieved in   6 iterations

     Forces acting on atoms (cartesian axes, Ry/au):

     atom    1 type  1   force =     0.00000000    0.00000000    0.00000000
     atom    2 type  1   force =     0.00000000    0.00000000    0.00000000

     Total force =     0.000000     Total SCF correction =     0.000000


     Computing stress (Cartesian axis) and pressure

          total   stress  (Ry/bohr**3)                   (kbar)     P=       38.25
   0.00025999   0.00000000   0.00000000           38.25        0.00        0.00
   0.00000000   0.00025999   0.00000000            0.00       38.25        0.00
   0.00000000   0.00000000   0.00025999            0.00        0.00       38.25


     Writing output data file ./out48/silicon.save/

     init_run     :      1.32s CPU      1.39s WALL (       1 calls)
     electrons    :      7.95s CPU      8.87s WALL (       1 calls)
     forces       :      0.54s CPU      0.61s WALL (       1 calls)
     stress       :      1.81s CPU      2.03s WALL (       1 calls)

     Called by init_run:
     wfcinit      :      0.14s CPU      0.14s WALL (       1 calls)
     potinit      :      0.11s CPU      0.11s WALL (       1 calls)
     hinit0       :      0.89s CPU      0.90s WALL (       1 calls)

     Called by electrons:
     c_bands      :      3.58s CPU      3.63s WALL (       7 calls)
     sum_band     :      2.52s CPU      2.98s WALL (       7 calls)
     v_of_rho     :      0.88s CPU      0.93s WALL (       7 calls)
     newd         :      1.09s CPU      1.49s WALL (       7 calls)
     mix_rho      :      0.06s CPU      0.06s WALL (       7 calls)

     Called by c_bands:
     init_us_2    :      0.17s CPU      0.19s WALL (     170 calls)
     cegterg      :      3.23s CPU      3.27s WALL (      70 calls)

     Called by sum_band:
     sum_band:bec :      0.00s CPU      0.00s WALL (      70 calls)
     addusdens    :      1.58s CPU      2.01s WALL (       7 calls)

     Called by *egterg:
     h_psi        :      2.36s CPU      2.39s WALL (     270 calls)
     s_psi        :      0.27s CPU      0.27s WALL (     270 calls)
     g_psi        :      0.02s CPU      0.02s WALL (     190 calls)
     cdiaghg      :      0.08s CPU      0.08s WALL (     250 calls)

     Called by h_psi:
     h_psi:calbec :      0.37s CPU      0.37s WALL (     270 calls)
     vloc_psi     :      1.63s CPU      1.65s WALL (     270 calls)
     add_vuspsi   :      0.34s CPU      0.35s WALL (     270 calls)

     General routines
     calbec       :      0.60s CPU      0.61s WALL (     390 calls)
     fft          :      0.45s CPU      0.47s WALL (     115 calls)
     ffts         :      0.01s CPU      0.01s WALL (      14 calls)
     fftw         :      1.57s CPU      1.62s WALL (    4376 calls)
     interpolate  :      0.03s CPU      0.03s WALL (       7 calls)


     PWSCF        :     12.58s CPU     13.86s WALL


   This run was terminated on:  23:34:58  12May2020            

=------------------------------------------------------------------------------=
   JOB DONE.
=------------------------------------------------------------------------------=
